# vtk DataFile Version 3.0
vtk output
ASCII
DATASET POLYDATA
POINTS 8 float
1 0.3 3
1 2 3
-1 2 3
-1 0.3 3
1 2 0.5
1 0.3 0.5
-1 0.3 0.5
-1 2 0.5
POLYGONS 12 48
3 1 2 0
3 0 2 3
3 5 6 4
3 4 6 7
3 3 6 0
3 0 6 5
3 2 7 3
3 3 7 6
3 1 4 2
3 2 4 7
3 0 5 1
3 1 5 4
CELL_DATA 12
SCALARS sm_group int 1
LOOKUP_TABLE default
1
1
2
2
3
3
4
4
5
5
6
6
SCALARS selection int 1
LOOKUP_TABLE default
0
0
0
0
0
0
0
0
0
0
0
0
